<?xml version="1.0" encoding="UTF-8"?>

<!-- generated on 06/13/20 07:50:08 by Eclipse SUMO GUI Version 1.6.0
<configuration xmlns:xsi="http://www.w3.org/2001/XMLSchema-instance" xsi:noNamespaceSchemaLocation="http://sumo.dlr.de/xsd/sumoConfiguration.xsd">

    <input>
        <net-file value="light/light.net.xml"/>
        <route-files value="light/light.rou.xml"/>
    </input>

    <output>
        <tripinfo-output value="light/tripinfo.xml"/>
    </output>

    <time>
        <begin value="0"/>
        <end value="2000"/>
        <step-length value="0.1"/>
    </time>

    <traci_server>
        <remote-port value="52402"/>
    </traci_server>

    <gui_only>
        <tracker-interval value="0.1"/>
    </gui_only>

</configuration>
-->

<tripinfos xmlns:xsi="http://www.w3.org/2001/XMLSchema-instance" xsi:noNamespaceSchemaLocation="http://sumo.dlr.de/xsd/tripinfo_file.xsd">
    <tripinfo id="0" depart="0.00" departLane="c_s_0" departPos="5.10" departSpeed="0.00" departDelay="0.00" arrival="9.30" arrivalLane="c_n_0" arrivalPos="26.40" arrivalSpeed="14.62" duration="9.30" routeLength="84.90" waitingTime="0.00" waitingCount="0" stopTime="0.00" timeLoss="3.53" rerouteNo="0" devices="tripinfo_0" vType="DEFAULT_VEHTYPE" speedFactor="1.06" vaporized=""/>
    <tripinfo id="2" depart="2.00" departLane="-c_n_0" departPos="5.10" departSpeed="0.00" departDelay="0.00" arrival="11.80" arrivalLane="-c_s_0" arrivalPos="36.40" arrivalSpeed="13.03" duration="9.80" routeLength="84.90" waitingTime="0.00" waitingCount="0" stopTime="0.00" timeLoss="3.23" rerouteNo="0" devices="tripinfo_2" vType="DEFAULT_VEHTYPE" speedFactor="0.94" vaporized=""/>
    <tripinfo id="4" depart="4.60" departLane="-c_n_0" departPos="5.10" departSpeed="0.00" departDelay="0.60" arrival="12.40" arrivalLane="c_e_2" arrivalPos="11.40" arrivalSpeed="12.32" duration="7.80" routeLength="57.21" waitingTime="0.00" waitingCount="0" stopTime="0.00" timeLoss="3.14" rerouteNo="0" devices="tripinfo_4" vType="DEFAULT_VEHTYPE" speedFactor="1.01" vaporized=""/>
    <tripinfo id="7" depart="7.00" departLane="w_c_0" departPos="5.10" departSpeed="0.00" departDelay="0.00" arrival="15.10" arrivalLane="-c_s_0" arrivalPos="36.40" arrivalSpeed="11.49" duration="8.10" routeLength="51.73" waitingTime="0.00" waitingCount="0" stopTime="0.00" timeLoss="2.70" rerouteNo="0" devices="tripinfo_7" vType="DEFAULT_VEHTYPE" speedFactor="0.83" vaporized=""/>
    <tripinfo id="5" depart="5.00" departLane="c_s_0" departPos="5.10" departSpeed="0.00" departDelay="0.00" arrival="15.90" arrivalLane="c_n_0" arrivalPos="26.40" arrivalSpeed="15.00" duration="10.90" routeLength="84.90" waitingTime="0.00" waitingCount="0" stopTime="0.00" timeLoss="5.20" rerouteNo="0" devices="tripinfo_5" vType="DEFAULT_VEHTYPE" speedFactor="1.08" vaporized=""/>
    <tripinfo id="6" depart="7.60" departLane="c_s_0" departPos="5.10" departSpeed="0.00" departDelay="1.60" arrival="16.10" arrivalLane="c_e_0" arrivalPos="11.40" arrivalSpeed="9.18" duration="8.50" routeLength="51.73" waitingTime="0.00" waitingCount="0" stopTime="0.00" timeLoss="4.12" rerouteNo="0" devices="tripinfo_6" vType="DEFAULT_VEHTYPE" speedFactor="1.03" vaporized=""/>
    <tripinfo id="10" depart="10.00" departLane="-c_n_0" departPos="5.10" departSpeed="0.00" departDelay="0.00" arrival="17.40" arrivalLane="-w_c_0" arrivalPos="11.40" arrivalSpeed="9.45" duration="7.40" routeLength="41.73" waitingTime="0.00" waitingCount="0" stopTime="0.00" timeLoss="3.81" rerouteNo="0" devices="tripinfo_10" vType="DEFAULT_VEHTYPE" speedFactor="1.05" vaporized=""/>
    <tripinfo id="12" depart="12.00" departLane="-c_e_0" departPos="5.10" departSpeed="0.00" departDelay="0.00" arrival="20.30" arrivalLane="-c_s_2" arrivalPos="36.40" arrivalSpeed="12.91" duration="8.30" routeLength="67.21" waitingTime="0.00" waitingCount="0" stopTime="0.00" timeLoss="2.53" rerouteNo="0" devices="tripinfo_12" vType="DEFAULT_VEHTYPE" speedFactor="0.94" vaporized=""/>
    <tripinfo id="14" depart="14.00" departLane="c_s_0" departPos="5.10" departSpeed="0.00" departDelay="0.00" arrival="22.20" arrivalLane="c_e_0" arrivalPos="11.40" arrivalSpeed="9.52" duration="8.20" routeLength="51.73" waitingTime="0.00" waitingCount="0" stopTime="0.00" timeLoss="4.09" rerouteNo="0" devices="tripinfo_14" vType="DEFAULT_VEHTYPE" speedFactor="1.09" vaporized=""/>
    <tripinfo id="11" depart="12.70" departLane="-c_n_0" departPos="5.10" departSpeed="0.00" departDelay="1.70" arrival="22.50" arrivalLane="-c_s_0" arrivalPos="36.40" arrivalSpeed="12.19" duration="9.80" routeLength="84.90" waitingTime="0.00" waitingCount="0" stopTime="0.00" timeLoss="2.89" rerouteNo="0" devices="tripinfo_11" vType="DEFAULT_VEHTYPE" speedFactor="0.89" vaporized=""/>
    <tripinfo id="13" depart="13.00" departLane="-c_e_0" departPos="5.10" departSpeed="0.00" departDelay="0.00" arrival="23.00" arrivalLane="-c_s_2" arrivalPos="36.40" arrivalSpeed="11.80" duration="10.00" routeLength="67.21" waitingTime="0.70" waitingCount="1" stopTime="0.00" timeLoss="3.57" rerouteNo="0" devices="tripinfo_13" vType="DEFAULT_VEHTYPE" speedFactor="0.86" vaporized=""/>
    <tripinfo id="15" depart="15.30" departLane="-c_n_0" departPos="5.10" departSpeed="0.00" departDelay="0.30" arrival="24.80" arrivalLane="-c_s_0" arrivalPos="36.40" arrivalSpeed="14.14" duration="9.50" routeLength="84.90" waitingTime="0.00" waitingCount="0" stopTime="0.00" timeLoss="3.46" rerouteNo="0" devices="tripinfo_15" vType="DEFAULT_VEHTYPE" speedFactor="1.03" vaporized=""/>
    <tripinfo id="16" depart="16.60" departLane="c_s_0" departPos="5.10" departSpeed="0.00" departDelay="0.60" arrival="26.00" arrivalLane="c_n_0" arrivalPos="26.40" arrivalSpeed="14.51" duration="9.40" routeLength="84.90" waitingTime="0.00" waitingCount="0" stopTime="0.00" timeLoss="3.52" rerouteNo="0" devices="tripinfo_16" vType="DEFAULT_VEHTYPE" speedFactor="1.05" vaporized=""/>
    <tripinfo id="19" depart="19.00" departLane="-c_n_0" departPos="5.10" departSpeed="0.00" departDelay="0.00" arrival="28.50" arrivalLane="-c_s_0" arrivalPos="36.40" arrivalSpeed="13.76" duration="9.50" routeLength="84.90" waitingTime="0.00" waitingCount="0" stopTime="0.00" timeLoss="3.28" rerouteNo="0" devices="tripinfo_19" vType="DEFAULT_VEHTYPE" speedFactor="0.99" vaporized=""/>
    <tripinfo id="17" depart="19.30" departLane="c_s_0" departPos="5.10" departSpeed="0.00" departDelay="2.30" arrival="28.60" arrivalLane="c_n_0" arrivalPos="26.40" arrivalSpeed="15.56" duration="9.30" routeLength="84.90" waitingTime="0.00" waitingCount="0" stopTime="0.00" timeLoss="3.83" rerouteNo="0" devices="tripinfo_17" vType="DEFAULT_VEHTYPE" speedFactor="1.12" vaporized=""/>
    <tripinfo id="20" depart="22.00" departLane="c_s_0" departPos="5.10" departSpeed="0.00" departDelay="2.00" arrival="31.10" arrivalLane="-w_c_2" arrivalPos="11.40" arrivalSpeed="11.37" duration="9.10" routeLength="67.21" waitingTime="0.00" waitingCount="0" stopTime="0.00" timeLoss="3.23" rerouteNo="0" devices="tripinfo_20" vType="DEFAULT_VEHTYPE" speedFactor="0.93" vaporized=""/>
    <tripinfo id="21" depart="22.10" departLane="c_s_0" departPos="5.10" departSpeed="0.00" departDelay="1.10" arrival="31.10" arrivalLane="c_e_0" arrivalPos="11.40" arrivalSpeed="8.60" duration="9.00" routeLength="51.73" waitingTime="0.00" waitingCount="0" stopTime="0.00" timeLoss="3.87" rerouteNo="0" devices="tripinfo_21" vType="DEFAULT_VEHTYPE" speedFactor="0.88" vaporized=""/>
    <tripinfo id="22" depart="22.00" departLane="w_c_0" departPos="5.10" departSpeed="0.00" departDelay="0.00" arrival="32.50" arrivalLane="-c_s_0" arrivalPos="36.40" arrivalSpeed="13.05" duration="10.50" routeLength="51.73" waitingTime="0.90" waitingCount="1" stopTime="0.00" timeLoss="5.69" rerouteNo="0" devices="tripinfo_22" vType="DEFAULT_VEHTYPE" speedFactor="0.94" vaporized=""/>
    <tripinfo id="23" depart="26.80" departLane="w_c_0" departPos="5.10" departSpeed="0.00" departDelay="3.80" arrival="34.60" arrivalLane="-c_s_0" arrivalPos="36.40" arrivalSpeed="12.89" duration="7.80" routeLength="51.73" waitingTime="0.00" waitingCount="0" stopTime="0.00" timeLoss="2.98" rerouteNo="0" devices="tripinfo_23" vType="DEFAULT_VEHTYPE" speedFactor="0.94" vaporized=""/>
    <tripinfo id="26" depart="26.00" departLane="-c_n_0" departPos="5.10" departSpeed="0.00" departDelay="0.00" arrival="36.00" arrivalLane="-c_s_0" arrivalPos="36.40" arrivalSpeed="14.11" duration="10.00" routeLength="84.90" waitingTime="0.00" waitingCount="0" stopTime="0.00" timeLoss="3.97" rerouteNo="0" devices="tripinfo_26" vType="DEFAULT_VEHTYPE" speedFactor="1.02" vaporized=""/>
    <tripinfo id="28" depart="28.00" departLane="c_s_0" departPos="5.10" departSpeed="0.00" departDelay="0.00" arrival="36.50" arrivalLane="c_e_0" arrivalPos="11.40" arrivalSpeed="9.08" duration="8.50" routeLength="51.73" waitingTime="0.00" waitingCount="0" stopTime="0.00" timeLoss="4.08" rerouteNo="0" devices="tripinfo_28" vType="DEFAULT_VEHTYPE" speedFactor="1.01" vaporized=""/>
    <tripinfo id="25" depart="29.50" departLane="w_c_0" departPos="5.10" departSpeed="0.00" departDelay="4.50" arrival="39.60" arrivalLane="-c_s_0" arrivalPos="36.40" arrivalSpeed="13.46" duration="10.10" routeLength="51.73" waitingTime="0.70" waitingCount="1" stopTime="0.00" timeLoss="6.18" rerouteNo="0" devices="tripinfo_25" vType="DEFAULT_VEHTYPE" speedFactor="1.16" vaporized=""/>
    <tripinfo id="30" depart="34.00" departLane="w_c_0" departPos="5.10" departSpeed="0.00" departDelay="4.00" arrival="40.60" arrivalLane="c_e_1" arrivalPos="11.40" arrivalSpeed="13.49" duration="6.60" routeLength="44.90" waitingTime="0.00" waitingCount="0" stopTime="0.00" timeLoss="3.21" rerouteNo="0" devices="tripinfo_30" vType="DEFAULT_VEHTYPE" speedFactor="0.98" vaporized=""/>
    <tripinfo id="36" depart="36.00" departLane="-c_e_0" departPos="5.10" departSpeed="0.00" departDelay="0.00" arrival="42.50" arrivalLane="-w_c_1" arrivalPos="11.40" arrivalSpeed="12.69" duration="6.50" routeLength="44.90" waitingTime="0.00" waitingCount="0" stopTime="0.00" timeLoss="2.98" rerouteNo="0" devices="tripinfo_36" vType="DEFAULT_VEHTYPE" speedFactor="0.92" vaporized=""/>
    <tripinfo id="31" depart="31.00" departLane="c_s_0" departPos="5.10" departSpeed="0.00" departDelay="0.00" arrival="44.20" arrivalLane="-w_c_2" arrivalPos="11.40" arrivalSpeed="10.55" duration="13.20" routeLength="67.21" waitingTime="0.70" waitingCount="1" stopTime="0.00" timeLoss="7.04" rerouteNo="0" devices="tripinfo_31" vType="DEFAULT_VEHTYPE" speedFactor="0.89" vaporized=""/>
    <tripinfo id="34" depart="34.00" departLane="c_s_0" departPos="5.10" departSpeed="0.00" departDelay="0.00" arrival="44.30" arrivalLane="c_n_0" arrivalPos="26.40" arrivalSpeed="12.11" duration="10.30" routeLength="84.90" waitingTime="0.00" waitingCount="0" stopTime="0.00" timeLoss="3.27" rerouteNo="0" devices="tripinfo_34" vType="DEFAULT_VEHTYPE" speedFactor="0.87" vaporized=""/>
    <tripinfo id="33" depart="33.00" departLane="c_s_0" departPos="5.10" departSpeed="0.00" departDelay="0.00" arrival="45.80" arrivalLane="-w_c_2" arrivalPos="11.40" arrivalSpeed="10.92" duration="12.80" routeLength="67.21" waitingTime="0.00" waitingCount="0" stopTime="0.00" timeLoss="6.13" rerouteNo="0" devices="tripinfo_33" vType="DEFAULT_VEHTYPE" speedFactor="0.83" vaporized=""/>
    <tripinfo id="37" depart="37.00" departLane="c_s_0" departPos="5.10" departSpeed="0.00" departDelay="0.00" arrival="46.70" arrivalLane="c_n_0" arrivalPos="26.40" arrivalSpeed="13.16" duration="9.70" routeLength="84.90" waitingTime="0.00" waitingCount="0" stopTime="0.00" timeLoss="3.22" rerouteNo="0" devices="tripinfo_37" vType="DEFAULT_VEHTYPE" speedFactor="0.95" vaporized=""/>
    <tripinfo id="39" depart="40.60" departLane="-c_n_0" departPos="5.10" departSpeed="0.00" departDelay="1.60" arrival="48.70" arrivalLane="c_e_2" arrivalPos="11.40" arrivalSpeed="11.53" duration="8.10" routeLength="57.21" waitingTime="0.00" waitingCount="0" stopTime="0.00" timeLoss="3.01" rerouteNo="0" devices="tripinfo_39" vType="DEFAULT_VEHTYPE" speedFactor="0.93" vaporized=""/>
    <tripinfo id="43" depart="43.30" departLane="-c_n_0" departPos="5.10" departSpeed="0.00" departDelay="0.30" arrival="50.30" arrivalLane="-w_c_0" arrivalPos="11.40" arrivalSpeed="9.92" duration="7.00" routeLength="41.73" waitingTime="0.00" waitingCount="0" stopTime="0.00" timeLoss="3.73" rerouteNo="0" devices="tripinfo_43" vType="DEFAULT_VEHTYPE" speedFactor="1.15" vaporized=""/>
    <tripinfo id="40" depart="40.70" departLane="-c_n_0" departPos="5.10" departSpeed="0.00" departDelay="0.70" arrival="50.40" arrivalLane="-c_s_0" arrivalPos="36.40" arrivalSpeed="16.25" duration="9.70" routeLength="84.90" waitingTime="0.00" waitingCount="0" stopTime="0.00" timeLoss="4.42" rerouteNo="0" devices="tripinfo_40" vType="DEFAULT_VEHTYPE" speedFactor="1.18" vaporized=""/>
    <tripinfo id="38" depart="38.00" departLane="-c_n_0" departPos="5.10" departSpeed="0.00" departDelay="0.00" arrival="51.00" arrivalLane="-c_s_1" arrivalPos="36.40" arrivalSpeed="14.92" duration="13.00" routeLength="84.90" waitingTime="0.00" waitingCount="0" stopTime="0.00" timeLoss="7.51" rerouteNo="0" devices="tripinfo_38" vType="DEFAULT_VEHTYPE" speedFactor="1.13" vaporized=""/>
    <tripinfo id="46" depart="46.80" departLane="w_c_0" departPos="5.10" departSpeed="0.00" departDelay="0.80" arrival="53.60" arrivalLane="c_e_1" arrivalPos="11.40" arrivalSpeed="13.38" duration="6.80" routeLength="44.90" waitingTime="0.00" waitingCount="0" stopTime="0.00" timeLoss="4.03" rerouteNo="0" devices="tripinfo_46" vType="DEFAULT_VEHTYPE" speedFactor="1.17" vaporized=""/>
    <tripinfo id="44" depart="44.00" departLane="w_c_0" departPos="5.10" departSpeed="0.00" departDelay="0.00" arrival="54.20" arrivalLane="c_e_0" arrivalPos="11.40" arrivalSpeed="12.17" duration="10.20" routeLength="44.90" waitingTime="1.00" waitingCount="1" stopTime="0.00" timeLoss="6.91" rerouteNo="0" devices="tripinfo_44" vType="DEFAULT_VEHTYPE" speedFactor="1.01" vaporized=""/>
    <tripinfo id="49" depart="49.00" departLane="-c_e_0" departPos="5.10" departSpeed="0.00" departDelay="0.00" arrival="57.80" arrivalLane="-c_s_2" arrivalPos="36.40" arrivalSpeed="13.70" duration="8.80" routeLength="67.21" waitingTime="0.00" waitingCount="0" stopTime="0.00" timeLoss="3.24" rerouteNo="0" devices="tripinfo_49" vType="DEFAULT_VEHTYPE" speedFactor="0.99" vaporized=""/>
</tripinfos>
